PSF CMAP CHEQ

       2 !NTITLE
REMARKS PSF for entire system
REMARKS total molecules: 10
REMARKS total complexes: 10

      50 !NATOM
       1    A    0  COM    O    0          0    2.68539         0
       2    A    0  aa1    N    0          0    2.68539         0
       3    A    0  aa1    N    0          0    2.68539         0
       4    A    0  aa2    N    0          0    2.68539         0
       5    A    0  aa2  LPA    0          0    2.68539         0
       6    A    1  COM    O    0          0    2.68539         0
       7    A    1  aa1    N    0          0    2.68539         0
       8    A    1  aa1    N    0          0    2.68539         0
       9    A    1  aa2    N    0          0    2.68539         0
      10    A    1  aa2  LPA    0          0    2.68539         0
      11    A    2  COM    O    0          0    2.68539         0
      12    A    2  aa1    N    0          0    2.68539         0
      13    A    2  aa1    N    0          0    2.68539         0
      14    A    2  aa2    N    0          0    2.68539         0
      15    A    2  aa2  LPA    0          0    2.68539         0
      16    A    3  COM    O    0          0    2.68539         0
      17    A    3  aa1    N    0          0    2.68539         0
      18    A    3  aa1    N    0          0    2.68539         0
      19    A    3  aa2    N    0          0    2.68539         0
      20    A    3  aa2  LPA    0          0    2.68539         0
      21    A    4  COM    O    0          0    2.68539         0
      22    A    4  aa1    N    0          0    2.68539         0
      23    A    4  aa1    N    0          0    2.68539         0
      24    A    4  aa2    N    0          0    2.68539         0
      25    A    4  aa2  LPA    0          0    2.68539         0
      26    A    5  COM    O    0          0    2.68539         0
      27    A    5  aa1    N    0          0    2.68539         0
      28    A    5  aa1    N    0          0    2.68539         0
      29    A    5  aa2    N    0          0    2.68539         0
      30    A    5  aa2  LPA    0          0    2.68539         0
      31    A    6  COM    O    0          0    2.68539         0
      32    A    6  aa1    N    0          0    2.68539         0
      33    A    6  aa1    N    0          0    2.68539         0
      34    A    6  aa2    N    0          0    2.68539         0
      35    A    6  aa2  LPA    0          0    2.68539         0
      36    A    7  COM    O    0          0    2.68539         0
      37    A    7  aa1    N    0          0    2.68539         0
      38    A    7  aa1    N    0          0    2.68539         0
      39    A    7  aa2    N    0          0    2.68539         0
      40    A    7  aa2  LPA    0          0    2.68539         0
      41    A    8  COM    O    0          0    2.68539         0
      42    A    8  aa1    N    0          0    2.68539         0
      43    A    8  aa1    N    0          0    2.68539         0
      44    A    8  aa2    N    0          0    2.68539         0
      45    A    8  aa2  LPA    0          0    2.68539         0
      46    A    9  COM    O    0          0    2.68539         0
      47    A    9  aa1    N    0          0    2.68539         0
      48    A    9  aa1    N    0          0    2.68539         0
      49    A    9  aa2    N    0          0    2.68539         0
      50    A    9  aa2  LPA    0          0    2.68539         0


      40 !NBOND: bonds
       1       2       1       3       1       4       1       5
       6       7       6       8       6       9       6      10
      11      12      11      13      11      14      11      15
      16      17      16      18      16      19      16      20
      21      22      21      23      21      24      21      25
      26      27      26      28      26      29      26      30
      31      32      31      33      31      34      31      35
      36      37      36      38      36      39      36      40
      41      42      41      43      41      44      41      45
      46      47      46      48      46      49      46      50
